
     Program PWSCF v.6.2 (svn rev. 14038) starts on  7Jun2018 at 17:44:23 

     This program is part of the open-source Quantum ESPRESSO suite
     for quantum simulation of materials; please cite
         "P. Giannozzi et al., J. Phys.:Condens. Matter 21 395502 (2009);
         "P. Giannozzi et al., J. Phys.:Condens. Matter 29 465901 (2017);
          URL http://www.quantum-espresso.org", 
     in publications or presentations arising from this work. More details at
     http://www.quantum-espresso.org/quote

     Parallel version (MPI), running on    32 processors

     MPI processes distributed on     1 nodes
     R & G space division:  proc/nbgrp/npool/nimage =      32
     Waiting for input...
     Reading input from standard input

     Current dimensions of program PWSCF are:
     Max number of different atomic species (ntypx) = 10
     Max number of k-points (npk) =  40000
     Max angular momentum in pseudopotentials (lmaxx) =  3

     IMPORTANT: XC functional enforced from input :
     Exchange-correlation      = VDW-DF2 ( 1  4 13  0 2 0)
     Any further DFT definition will be discarded
     Please, verify this is what you really want


     gamma-point specific algorithms are used

     Subspace diagonalization in iterative solution of the eigenvalue problem:
     one sub-group per band group will be used
     scalapack distributed-memory algorithm (size of sub-group:  4*  4 procs)

 
     Parallelization info
     --------------------
     sticks:   dense  smooth     PW     G-vecs:    dense   smooth      PW
     Min        1990     795    198               377628    95512   11946
     Max        1994     798    200               377634    95520   11952
     Sum       63697   25477   6369             12084189  3056521  382323
 


     bravais-lattice index     =            1
     lattice parameter (alat)  =      40.0000  a.u.
     unit-cell volume          =   64000.0000 (a.u.)^3
     number of atoms/cell      =            7
     number of atomic types    =            2
     number of electrons       =        48.00
     number of Kohn-Sham states=           29
     kinetic-energy cutoff     =      50.0000  Ry
     charge density cutoff     =     500.0000  Ry
     convergence threshold     =      1.0E-08
     mixing beta               =       0.7000
     number of iterations used =            8  plain     mixing
     Exchange-correlation      = VDW-DF2 ( 1  4 13  0 2 0)
     nstep                     =          100


     celldm(1)=  40.000000  celldm(2)=   0.000000  celldm(3)=   0.000000
     celldm(4)=   0.000000  celldm(5)=   0.000000  celldm(6)=   0.000000

     crystal axes: (cart. coord. in units of alat)
               a(1) = (   1.000000   0.000000   0.000000 )  
               a(2) = (   0.000000   1.000000   0.000000 )  
               a(3) = (   0.000000   0.000000   1.000000 )  

     reciprocal axes: (cart. coord. in units 2 pi/alat)
               b(1) = (  1.000000  0.000000  0.000000 )  
               b(2) = (  0.000000  1.000000  0.000000 )  
               b(3) = (  0.000000  0.000000  1.000000 )  


     PseudoPot. # 1 for S  read from file:
     /deac/thonhauserGrp/chakrad/calculations/atomandmolecule-qe6.2.1-i2012-C6modif/all_pbe_UPF_v1.5/s_pbe_v1.4.uspp.F.UPF
     MD5 check sum: 88d86576ff6df21479756cfb9bdac1df
     Pseudo is Ultrasoft + core correction, Zval =  6.0
     Generated by new atomic code, or converted to UPF format
     Using radial grid of  907 points,  6 beta functions with: 
                l(1) =   0
                l(2) =   0
                l(3) =   1
                l(4) =   1
                l(5) =   2
                l(6) =   2
     Q(r) pseudized with  8 coefficients,  rinner =    1.300   1.300   1.300
                                                       1.300   1.300

     PseudoPot. # 2 for F  read from file:
     /deac/thonhauserGrp/chakrad/calculations/atomandmolecule-qe6.2.1-i2012-C6modif/all_pbe_UPF_v1.5/f_pbe_v1.4.uspp.F.UPF
     MD5 check sum: 4c38b6a325caf53ec0e86aed9459de46
     Pseudo is Ultrasoft, Zval =  7.0
     Generated by new atomic code, or converted to UPF format
     Using radial grid of  799 points,  4 beta functions with: 
                l(1) =   0
                l(2) =   0
                l(3) =   1
                l(4) =   1
     Q(r) pseudized with  8 coefficients,  rinner =    0.950   0.950   0.950


     vdW kernel table read from file vdW_kernel_table
     MD5 check sum: cc9485f6209b1096fbef62427c856dab

     atomic species   valence    mass     pseudopotential
        S              6.00    32.07000     S ( 1.00)
        F              7.00    18.99000     F ( 1.00)

     Starting magnetic structure 
     atomic species   magnetization
        S            0.000
        F            0.000

     48 Sym. Ops., with inversion, found


                                    s                        frac. trans.

      isym =  1     identity                                     

 cryst.   s( 1) = (     1          0          0      )
                  (     0          1          0      )
                  (     0          0          1      )

 cart.    s( 1) = (  1.0000000  0.0000000  0.0000000 )
                  (  0.0000000  1.0000000  0.0000000 )
                  (  0.0000000  0.0000000  1.0000000 )


      isym =  2     180 deg rotation - cart. axis [0,0,1]        

 cryst.   s( 2) = (    -1          0          0      )
                  (     0         -1          0      )
                  (     0          0          1      )

 cart.    s( 2) = ( -1.0000000  0.0000000  0.0000000 )
                  (  0.0000000 -1.0000000  0.0000000 )
                  (  0.0000000  0.0000000  1.0000000 )


      isym =  3     180 deg rotation - cart. axis [0,1,0]        

 cryst.   s( 3) = (    -1          0          0      )
                  (     0          1          0      )
                  (     0          0         -1      )

 cart.    s( 3) = ( -1.0000000  0.0000000  0.0000000 )
                  (  0.0000000  1.0000000  0.0000000 )
                  (  0.0000000  0.0000000 -1.0000000 )


      isym =  4     180 deg rotation - cart. axis [1,0,0]        

 cryst.   s( 4) = (     1          0          0      )
                  (     0         -1          0      )
                  (     0          0         -1      )

 cart.    s( 4) = (  1.0000000  0.0000000  0.0000000 )
                  (  0.0000000 -1.0000000  0.0000000 )
                  (  0.0000000  0.0000000 -1.0000000 )


      isym =  5     180 deg rotation - cart. axis [1,1,0]        

 cryst.   s( 5) = (     0          1          0      )
                  (     1          0          0      )
                  (     0          0         -1      )

 cart.    s( 5) = (  0.0000000  1.0000000  0.0000000 )
                  (  1.0000000  0.0000000  0.0000000 )
                  (  0.0000000  0.0000000 -1.0000000 )


      isym =  6     180 deg rotation - cart. axis [1,-1,0]       

 cryst.   s( 6) = (     0         -1          0      )
                  (    -1          0          0      )
                  (     0          0         -1      )

 cart.    s( 6) = (  0.0000000 -1.0000000  0.0000000 )
                  ( -1.0000000  0.0000000  0.0000000 )
                  (  0.0000000  0.0000000 -1.0000000 )


      isym =  7      90 deg rotation - cart. axis [0,0,-1]       

 cryst.   s( 7) = (     0         -1          0      )
                  (     1          0          0      )
                  (     0          0          1      )

 cart.    s( 7) = (  0.0000000  1.0000000  0.0000000 )
                  ( -1.0000000  0.0000000  0.0000000 )
                  (  0.0000000  0.0000000  1.0000000 )


      isym =  8      90 deg rotation - cart. axis [0,0,1]        

 cryst.   s( 8) = (     0          1          0      )
                  (    -1          0          0      )
                  (     0          0          1      )

 cart.    s( 8) = (  0.0000000 -1.0000000  0.0000000 )
                  (  1.0000000  0.0000000  0.0000000 )
                  (  0.0000000  0.0000000  1.0000000 )


      isym =  9     180 deg rotation - cart. axis [1,0,1]        

 cryst.   s( 9) = (     0          0          1      )
                  (     0         -1          0      )
                  (     1          0          0      )

 cart.    s( 9) = (  0.0000000  0.0000000  1.0000000 )
                  (  0.0000000 -1.0000000  0.0000000 )
                  (  1.0000000  0.0000000  0.0000000 )


      isym = 10     180 deg rotation - cart. axis [-1,0,1]       

 cryst.   s(10) = (     0          0         -1      )
                  (     0         -1          0      )
                  (    -1          0          0      )

 cart.    s(10) = (  0.0000000  0.0000000 -1.0000000 )
                  (  0.0000000 -1.0000000  0.0000000 )
                  ( -1.0000000  0.0000000  0.0000000 )


      isym = 11      90 deg rotation - cart. axis [0,1,0]        

 cryst.   s(11) = (     0          0         -1      )
                  (     0          1          0      )
                  (     1          0          0      )

 cart.    s(11) = (  0.0000000  0.0000000  1.0000000 )
                  (  0.0000000  1.0000000  0.0000000 )
                  ( -1.0000000  0.0000000  0.0000000 )


      isym = 12      90 deg rotation - cart. axis [0,-1,0]       

 cryst.   s(12) = (     0          0          1      )
                  (     0          1          0      )
                  (    -1          0          0      )

 cart.    s(12) = (  0.0000000  0.0000000 -1.0000000 )
                  (  0.0000000  1.0000000  0.0000000 )
                  (  1.0000000  0.0000000  0.0000000 )


      isym = 13     180 deg rotation - cart. axis [0,1,1]        

 cryst.   s(13) = (    -1          0          0      )
                  (     0          0          1      )
                  (     0          1          0      )

 cart.    s(13) = ( -1.0000000  0.0000000  0.0000000 )
                  (  0.0000000  0.0000000  1.0000000 )
                  (  0.0000000  1.0000000  0.0000000 )


      isym = 14     180 deg rotation - cart. axis [0,1,-1]       

 cryst.   s(14) = (    -1          0          0      )
                  (     0          0         -1      )
                  (     0         -1          0      )

 cart.    s(14) = ( -1.0000000  0.0000000  0.0000000 )
                  (  0.0000000  0.0000000 -1.0000000 )
                  (  0.0000000 -1.0000000  0.0000000 )


      isym = 15      90 deg rotation - cart. axis [-1,0,0]       

 cryst.   s(15) = (     1          0          0      )
                  (     0          0         -1      )
                  (     0          1          0      )

 cart.    s(15) = (  1.0000000  0.0000000  0.0000000 )
                  (  0.0000000  0.0000000  1.0000000 )
                  (  0.0000000 -1.0000000  0.0000000 )


      isym = 16      90 deg rotation - cart. axis [1,0,0]        

 cryst.   s(16) = (     1          0          0      )
                  (     0          0          1      )
                  (     0         -1          0      )

 cart.    s(16) = (  1.0000000  0.0000000  0.0000000 )
                  (  0.0000000  0.0000000 -1.0000000 )
                  (  0.0000000  1.0000000  0.0000000 )


      isym = 17     120 deg rotation - cart. axis [-1,-1,-1]     

 cryst.   s(17) = (     0          0          1      )
                  (     1          0          0      )
                  (     0          1          0      )

 cart.    s(17) = (  0.0000000  1.0000000  0.0000000 )
                  (  0.0000000  0.0000000  1.0000000 )
                  (  1.0000000  0.0000000  0.0000000 )


      isym = 18     120 deg rotation - cart. axis [-1,1,1]       

 cryst.   s(18) = (     0          0         -1      )
                  (    -1          0          0      )
                  (     0          1          0      )

 cart.    s(18) = (  0.0000000 -1.0000000  0.0000000 )
                  (  0.0000000  0.0000000  1.0000000 )
                  ( -1.0000000  0.0000000  0.0000000 )


      isym = 19     120 deg rotation - cart. axis [1,1,-1]       

 cryst.   s(19) = (     0          0         -1      )
                  (     1          0          0      )
                  (     0         -1          0      )

 cart.    s(19) = (  0.0000000  1.0000000  0.0000000 )
                  (  0.0000000  0.0000000 -1.0000000 )
                  ( -1.0000000  0.0000000  0.0000000 )


      isym = 20     120 deg rotation - cart. axis [1,-1,1]       

 cryst.   s(20) = (     0          0          1      )
                  (    -1          0          0      )
                  (     0         -1          0      )

 cart.    s(20) = (  0.0000000 -1.0000000  0.0000000 )
                  (  0.0000000  0.0000000 -1.0000000 )
                  (  1.0000000  0.0000000  0.0000000 )


      isym = 21     120 deg rotation - cart. axis [1,1,1]        

 cryst.   s(21) = (     0          1          0      )
                  (     0          0          1      )
                  (     1          0          0      )

 cart.    s(21) = (  0.0000000  0.0000000  1.0000000 )
                  (  1.0000000  0.0000000  0.0000000 )
                  (  0.0000000  1.0000000  0.0000000 )


      isym = 22     120 deg rotation - cart. axis [-1,1,-1]      

 cryst.   s(22) = (     0         -1          0      )
                  (     0          0         -1      )
                  (     1          0          0      )

 cart.    s(22) = (  0.0000000  0.0000000  1.0000000 )
                  ( -1.0000000  0.0000000  0.0000000 )
                  (  0.0000000 -1.0000000  0.0000000 )


      isym = 23     120 deg rotation - cart. axis [1,-1,-1]      

 cryst.   s(23) = (     0         -1          0      )
                  (     0          0          1      )
                  (    -1          0          0      )

 cart.    s(23) = (  0.0000000  0.0000000 -1.0000000 )
                  ( -1.0000000  0.0000000  0.0000000 )
                  (  0.0000000  1.0000000  0.0000000 )


      isym = 24     120 deg rotation - cart. axis [-1,-1,1]      

 cryst.   s(24) = (     0          1          0      )
                  (     0          0         -1      )
                  (    -1          0          0      )

 cart.    s(24) = (  0.0000000  0.0000000 -1.0000000 )
                  (  1.0000000  0.0000000  0.0000000 )
                  (  0.0000000 -1.0000000  0.0000000 )


      isym = 25     inversion                                    

 cryst.   s(25) = (    -1          0          0      )
                  (     0         -1          0      )
                  (     0          0         -1      )

 cart.    s(25) = ( -1.0000000  0.0000000  0.0000000 )
                  (  0.0000000 -1.0000000  0.0000000 )
                  (  0.0000000  0.0000000 -1.0000000 )


      isym = 26     inv. 180 deg rotation - cart. axis [0,0,1]   

 cryst.   s(26) = (     1          0          0      )
                  (     0          1          0      )
                  (     0          0         -1      )

 cart.    s(26) = (  1.0000000  0.0000000  0.0000000 )
                  (  0.0000000  1.0000000  0.0000000 )
                  (  0.0000000  0.0000000 -1.0000000 )


      isym = 27     inv. 180 deg rotation - cart. axis [0,1,0]   

 cryst.   s(27) = (     1          0          0      )
                  (     0         -1          0      )
                  (     0          0          1      )

 cart.    s(27) = (  1.0000000  0.0000000  0.0000000 )
                  (  0.0000000 -1.0000000  0.0000000 )
                  (  0.0000000  0.0000000  1.0000000 )


      isym = 28     inv. 180 deg rotation - cart. axis [1,0,0]   

 cryst.   s(28) = (    -1          0          0      )
                  (     0          1          0      )
                  (     0          0          1      )

 cart.    s(28) = ( -1.0000000  0.0000000  0.0000000 )
                  (  0.0000000  1.0000000  0.0000000 )
                  (  0.0000000  0.0000000  1.0000000 )


      isym = 29     inv. 180 deg rotation - cart. axis [1,1,0]   

 cryst.   s(29) = (     0         -1          0      )
                  (    -1          0          0      )
                  (     0          0          1      )

 cart.    s(29) = (  0.0000000 -1.0000000  0.0000000 )
                  ( -1.0000000  0.0000000  0.0000000 )
                  (  0.0000000  0.0000000  1.0000000 )


      isym = 30     inv. 180 deg rotation - cart. axis [1,-1,0]  

 cryst.   s(30) = (     0          1          0      )
                  (     1          0          0      )
                  (     0          0          1      )

 cart.    s(30) = (  0.0000000  1.0000000  0.0000000 )
                  (  1.0000000  0.0000000  0.0000000 )
                  (  0.0000000  0.0000000  1.0000000 )


      isym = 31     inv.  90 deg rotation - cart. axis [0,0,-1]  

 cryst.   s(31) = (     0          1          0      )
                  (    -1          0          0      )
                  (     0          0         -1      )

 cart.    s(31) = (  0.0000000 -1.0000000  0.0000000 )
                  (  1.0000000  0.0000000  0.0000000 )
                  (  0.0000000  0.0000000 -1.0000000 )


      isym = 32     inv.  90 deg rotation - cart. axis [0,0,1]   

 cryst.   s(32) = (     0         -1          0      )
                  (     1          0          0      )
                  (     0          0         -1      )

 cart.    s(32) = (  0.0000000  1.0000000  0.0000000 )
                  ( -1.0000000  0.0000000  0.0000000 )
                  (  0.0000000  0.0000000 -1.0000000 )


      isym = 33     inv. 180 deg rotation - cart. axis [1,0,1]   

 cryst.   s(33) = (     0          0         -1      )
                  (     0          1          0      )
                  (    -1          0          0      )

 cart.    s(33) = (  0.0000000  0.0000000 -1.0000000 )
                  (  0.0000000  1.0000000  0.0000000 )
                  ( -1.0000000  0.0000000  0.0000000 )


      isym = 34     inv. 180 deg rotation - cart. axis [-1,0,1]  

 cryst.   s(34) = (     0          0          1      )
                  (     0          1          0      )
                  (     1          0          0      )

 cart.    s(34) = (  0.0000000  0.0000000  1.0000000 )
                  (  0.0000000  1.0000000  0.0000000 )
                  (  1.0000000  0.0000000  0.0000000 )


      isym = 35     inv.  90 deg rotation - cart. axis [0,1,0]   

 cryst.   s(35) = (     0          0          1      )
                  (     0         -1          0      )
                  (    -1          0          0      )

 cart.    s(35) = (  0.0000000  0.0000000 -1.0000000 )
                  (  0.0000000 -1.0000000  0.0000000 )
                  (  1.0000000  0.0000000  0.0000000 )


      isym = 36     inv.  90 deg rotation - cart. axis [0,-1,0]  

 cryst.   s(36) = (     0          0         -1      )
                  (     0         -1          0      )
                  (     1          0          0      )

 cart.    s(36) = (  0.0000000  0.0000000  1.0000000 )
                  (  0.0000000 -1.0000000  0.0000000 )
                  ( -1.0000000  0.0000000  0.0000000 )


      isym = 37     inv. 180 deg rotation - cart. axis [0,1,1]   

 cryst.   s(37) = (     1          0          0      )
                  (     0          0         -1      )
                  (     0         -1          0      )

 cart.    s(37) = (  1.0000000  0.0000000  0.0000000 )
                  (  0.0000000  0.0000000 -1.0000000 )
                  (  0.0000000 -1.0000000  0.0000000 )


      isym = 38     inv. 180 deg rotation - cart. axis [0,1,-1]  

 cryst.   s(38) = (     1          0          0      )
                  (     0          0          1      )
                  (     0          1          0      )

 cart.    s(38) = (  1.0000000  0.0000000  0.0000000 )
                  (  0.0000000  0.0000000  1.0000000 )
                  (  0.0000000  1.0000000  0.0000000 )


      isym = 39     inv.  90 deg rotation - cart. axis [-1,0,0]  

 cryst.   s(39) = (    -1          0          0      )
                  (     0          0          1      )
                  (     0         -1          0      )

 cart.    s(39) = ( -1.0000000  0.0000000  0.0000000 )
                  (  0.0000000  0.0000000 -1.0000000 )
                  (  0.0000000  1.0000000  0.0000000 )


      isym = 40     inv.  90 deg rotation - cart. axis [1,0,0]   

 cryst.   s(40) = (    -1          0          0      )
                  (     0          0         -1      )
                  (     0          1          0      )

 cart.    s(40) = ( -1.0000000  0.0000000  0.0000000 )
                  (  0.0000000  0.0000000  1.0000000 )
                  (  0.0000000 -1.0000000  0.0000000 )


      isym = 41     inv. 120 deg rotation - cart. axis [-1,-1,-1]

 cryst.   s(41) = (     0          0         -1      )
                  (    -1          0          0      )
                  (     0         -1          0      )

 cart.    s(41) = (  0.0000000 -1.0000000  0.0000000 )
                  (  0.0000000  0.0000000 -1.0000000 )
                  ( -1.0000000  0.0000000  0.0000000 )


      isym = 42     inv. 120 deg rotation - cart. axis [-1,1,1]  

 cryst.   s(42) = (     0          0          1      )
                  (     1          0          0      )
                  (     0         -1          0      )

 cart.    s(42) = (  0.0000000  1.0000000  0.0000000 )
                  (  0.0000000  0.0000000 -1.0000000 )
                  (  1.0000000  0.0000000  0.0000000 )


      isym = 43     inv. 120 deg rotation - cart. axis [1,1,-1]  

 cryst.   s(43) = (     0          0          1      )
                  (    -1          0          0      )
                  (     0          1          0      )

 cart.    s(43) = (  0.0000000 -1.0000000  0.0000000 )
                  (  0.0000000  0.0000000  1.0000000 )
                  (  1.0000000  0.0000000  0.0000000 )


      isym = 44     inv. 120 deg rotation - cart. axis [1,-1,1]  

 cryst.   s(44) = (     0          0         -1      )
                  (     1          0          0      )
                  (     0          1          0      )

 cart.    s(44) = (  0.0000000  1.0000000  0.0000000 )
                  (  0.0000000  0.0000000  1.0000000 )
                  ( -1.0000000  0.0000000  0.0000000 )


      isym = 45     inv. 120 deg rotation - cart. axis [1,1,1]   

 cryst.   s(45) = (     0         -1          0      )
                  (     0          0         -1      )
                  (    -1          0          0      )

 cart.    s(45) = (  0.0000000  0.0000000 -1.0000000 )
                  ( -1.0000000  0.0000000  0.0000000 )
                  (  0.0000000 -1.0000000  0.0000000 )


      isym = 46     inv. 120 deg rotation - cart. axis [-1,1,-1] 

 cryst.   s(46) = (     0          1          0      )
                  (     0          0          1      )
                  (    -1          0          0      )

 cart.    s(46) = (  0.0000000  0.0000000 -1.0000000 )
                  (  1.0000000  0.0000000  0.0000000 )
                  (  0.0000000  1.0000000  0.0000000 )


      isym = 47     inv. 120 deg rotation - cart. axis [1,-1,-1] 

 cryst.   s(47) = (     0          1          0      )
                  (     0          0         -1      )
                  (     1          0          0      )

 cart.    s(47) = (  0.0000000  0.0000000  1.0000000 )
                  (  1.0000000  0.0000000  0.0000000 )
                  (  0.0000000 -1.0000000  0.0000000 )


      isym = 48     inv. 120 deg rotation - cart. axis [-1,-1,1] 

 cryst.   s(48) = (     0         -1          0      )
                  (     0          0          1      )
                  (     1          0          0      )

 cart.    s(48) = (  0.0000000  0.0000000  1.0000000 )
                  ( -1.0000000  0.0000000  0.0000000 )
                  (  0.0000000  1.0000000  0.0000000 )


     point group O_h (m-3m) 
     there are 10 classes
     the character table:

       E     8C3   3C2   6C4   6C2'  i     8S6   3s_h  6S4   6s_d 
A_1g   1.00  1.00  1.00  1.00  1.00  1.00  1.00  1.00  1.00  1.00
A_2g   1.00  1.00  1.00 -1.00 -1.00  1.00  1.00  1.00 -1.00 -1.00
E_g    2.00 -1.00  2.00  0.00  0.00  2.00 -1.00  2.00  0.00  0.00
T_1g   3.00  0.00 -1.00  1.00 -1.00  3.00  0.00 -1.00  1.00 -1.00
T_2g   3.00  0.00 -1.00 -1.00  1.00  3.00  0.00 -1.00 -1.00  1.00
A_1u   1.00  1.00  1.00  1.00  1.00 -1.00 -1.00 -1.00 -1.00 -1.00
A_2u   1.00  1.00  1.00 -1.00 -1.00 -1.00 -1.00 -1.00  1.00  1.00
E_u    2.00 -1.00  2.00  0.00  0.00 -2.00  1.00 -2.00  0.00  0.00
T_1u   3.00  0.00 -1.00  1.00 -1.00 -3.00  0.00  1.00 -1.00  1.00
T_2u   3.00  0.00 -1.00 -1.00  1.00 -3.00  0.00  1.00  1.00 -1.00

     the symmetry operations in each class and the name of the first element:

     E        1
          identity                                               
     8C3     17   19   20   18   24   21   22   23
          120 deg rotation - cart. axis [-1,-1,-1]               
     3C2      2    4    3
          180 deg rotation - cart. axis [0,0,1]                  
     6C4      7    8   15   16   12   11
           90 deg rotation - cart. axis [0,0,-1]                 
     6C2'     5    6   14   13   10    9
          180 deg rotation - cart. axis [1,1,0]                  
     i       25
          inversion                                              
     8S6     41   43   44   42   48   45   46   47
          inv. 120 deg rotation - cart. axis [-1,-1,-1]          
     3s_h    26   28   27
          inv. 180 deg rotation - cart. axis [0,0,1]             
     6S4     31   32   39   40   36   35
          inv.  90 deg rotation - cart. axis [0,0,-1]            
     6s_d    29   30   38   37   34   33
          inv. 180 deg rotation - cart. axis [1,1,0]             

   Cartesian axes

     site n.     atom                  positions (alat units)
         1           S   tau(   1) = (   0.0000000   0.0000000   0.0000000  )
         2           F   tau(   2) = (   0.0752966   0.0000000   0.0000000  )
         3           F   tau(   3) = (  -0.0752966   0.0000000   0.0000000  )
         4           F   tau(   4) = (   0.0000000   0.0000000  -0.0752966  )
         5           F   tau(   5) = (   0.0000000   0.0000000   0.0752966  )
         6           F   tau(   6) = (   0.0000000  -0.0752966   0.0000000  )
         7           F   tau(   7) = (   0.0000000   0.0752966   0.0000000  )

   Crystallographic axes

     site n.     atom                  positions (cryst. coord.)
         1           S   tau(   1) = (  0.0000000  0.0000000  0.0000000  )
         2           F   tau(   2) = (  0.0752966  0.0000000  0.0000000  )
         3           F   tau(   3) = ( -0.0752966  0.0000000  0.0000000  )
         4           F   tau(   4) = (  0.0000000  0.0000000 -0.0752966  )
         5           F   tau(   5) = (  0.0000000  0.0000000  0.0752966  )
         6           F   tau(   6) = (  0.0000000 -0.0752966  0.0000000  )
         7           F   tau(   7) = (  0.0000000  0.0752966  0.0000000  )

     number of k points=     1  gaussian smearing, width (Ry)=  0.0001
                       cart. coord. in units 2pi/alat
        k(    1) = (   0.0000000   0.0000000   0.0000000), wk =   1.0000000

                       cryst. coord.
        k(    1) = (   0.0000000   0.0000000   0.0000000), wk =   1.0000000

     Dense  grid:  6042095 G-vectors     FFT dimensions: ( 288, 288, 288)

     Smooth grid:  1528261 G-vectors     FFT dimensions: ( 192, 192, 192)

     Dynamical RAM for                 wfc:       2.64 MB

     Dynamical RAM for     wfc (w. buffer):       7.93 MB

     Dynamical RAM for           str. fact:       5.76 MB

     Dynamical RAM for           local pot:       0.00 MB

     Dynamical RAM for          nlocal pot:       6.01 MB

     Dynamical RAM for                qrad:      22.81 MB

     Dynamical RAM for          rho,v,vnew:      51.46 MB

     Dynamical RAM for               rhoin:      17.15 MB

     Dynamical RAM for            rho*nmix:      92.19 MB

     Dynamical RAM for           G-vectors:      11.17 MB

     Dynamical RAM for          h,s,v(r/c):       0.02 MB

     Dynamical RAM for          <psi|beta>:       0.01 MB

     Dynamical RAM for                 psi:      10.57 MB

     Dynamical RAM for                hpsi:      10.57 MB

     Dynamical RAM for                spsi:      10.57 MB

     Dynamical RAM for      wfcinit/wfcrot:       5.30 MB

     Dynamical RAM for           addusdens:     556.05 MB

     Dynamical RAM for          addusforce:     593.56 MB

     Estimated static dynamical RAM per process >     257.30 MB

     Estimated max dynamical RAM per process >     850.86 MB

     Estimated total dynamical RAM >      26.59 GB
     Generating pointlists ...
     new r_m :   0.0311 (alat units)  1.2424 (a.u.) for type    1
     new r_m :   0.0311 (alat units)  1.2424 (a.u.) for type    2

     Initial potential from superposition of free atoms
     Check: negative starting charge=(component1):   -0.001607
     Check: negative starting charge=(component2):   -0.001607

     starting charge   47.99996, renormalised to   48.00000

     negative rho (up, down):  1.607E-03 1.607E-03


     %%%%%%%%%%%%%%%%%%%%%%%%%%%%%%%%%%%%%%%%%%%%%%%%%%%%%%%%%%%%%%%%%%%%%%%%
     %                                                                      %
     % You are using vdW-DF, which was implemented by the Thonhauser group. %
     % Please cite the following two papers that made this development      %
     % possible and the two reviews that describe the various versions:     %
     %                                                                      %
     %   T. Thonhauser et al., PRL 115, 136402 (2015).                      %
     %   T. Thonhauser et al., PRB 76, 125112 (2007).                       %
     %   K. Berland et al., Rep. Prog. Phys. 78, 066501 (2015).             %
     %   D.C. Langreth et al., J. Phys.: Condens. Matter 21, 084203 (2009). %
     %                                                                      %
     %                                                                      %
     % If you are calculating the stress with vdW-DF, please also cite:     %
     %                                                                      %
     %   R. Sabatini et al., J. Phys.: Condens. Matter 24, 424209 (2012).   %
     %                                                                      %
     %%%%%%%%%%%%%%%%%%%%%%%%%%%%%%%%%%%%%%%%%%%%%%%%%%%%%%%%%%%%%%%%%%%%%%%%


     Carrying out vdW-DF run using the following parameters:
     Nqs    =  20  Npoints =  1024  r_max =  100.000
     q_mesh =  0.00001000  0.04494208  0.09755937  0.15916263
               0.23128650  0.31572767  0.41458969  0.53033537
               0.66584808  0.82450364  1.01025438  1.22772762
               1.48234092  1.78043706  2.12944203  2.53805004
               3.01644009  3.57652955  4.23227104  5.00000000


     -----------------------------------------------
     C6 coefficient =    356.64549870
     -----------------------------------------------



     -----------------------------------------------
     Non-local corr. energy    =       0.77169755 Ry
     -----------------------------------------------

     Starting wfc are   28 randomized atomic wfcs +    1 random wfc

     total cpu time spent up to now is       22.5 secs

     Self-consistent Calculation

     iteration #  1     ecut=    50.00 Ry     beta= 0.70
     Davidson diagonalization with overlap
     ethr =  1.00E-02,  avg # of iterations =  6.0

     negative rho (up, down):  2.285E-03 2.285E-03


     -----------------------------------------------
     C6 coefficient =    296.20778235
     -----------------------------------------------



     -----------------------------------------------
     Non-local corr. energy    =       0.79862910 Ry
     -----------------------------------------------


     total cpu time spent up to now is       48.1 secs

     total energy              =    -317.39977794 Ry
     Harris-Foulkes estimate   =    -318.46558444 Ry
     estimated scf accuracy    <       1.40266461 Ry

     total magnetization       =    -0.00 Bohr mag/cell
     absolute magnetization    =     0.00 Bohr mag/cell

     iteration #  2     ecut=    50.00 Ry     beta= 0.70
     Davidson diagonalization with overlap
     ethr =  2.92E-03,  avg # of iterations =  4.0

     negative rho (up, down):  2.463E-03 2.463E-03


     -----------------------------------------------
     C6 coefficient =    315.46996874
     -----------------------------------------------



     -----------------------------------------------
     Non-local corr. energy    =       0.78607020 Ry
     -----------------------------------------------


     total cpu time spent up to now is       73.8 secs

     total energy              =    -317.72270101 Ry
     Harris-Foulkes estimate   =    -318.49257462 Ry
     estimated scf accuracy    <       1.59526963 Ry

     total magnetization       =     0.00 Bohr mag/cell
     absolute magnetization    =     0.00 Bohr mag/cell

     iteration #  3     ecut=    50.00 Ry     beta= 0.70
     Davidson diagonalization with overlap
     ethr =  2.92E-03,  avg # of iterations =  3.0

     negative rho (up, down):  2.423E-03 2.423E-03


     -----------------------------------------------
     C6 coefficient =    307.40441550
     -----------------------------------------------



     -----------------------------------------------
     Non-local corr. energy    =       0.78775519 Ry
     -----------------------------------------------


     total cpu time spent up to now is       98.6 secs

     total energy              =    -318.05482914 Ry
     Harris-Foulkes estimate   =    -318.05527454 Ry
     estimated scf accuracy    <       0.00549179 Ry

     total magnetization       =     0.00 Bohr mag/cell
     absolute magnetization    =     0.00 Bohr mag/cell

     iteration #  4     ecut=    50.00 Ry     beta= 0.70
     Davidson diagonalization with overlap
     ethr =  1.14E-05,  avg # of iterations = 12.0

     negative rho (up, down):  2.447E-03 2.447E-03


     -----------------------------------------------
     C6 coefficient =    307.79978597
     -----------------------------------------------



     -----------------------------------------------
     Non-local corr. energy    =       0.78763050 Ry
     -----------------------------------------------


     total cpu time spent up to now is      126.2 secs

     total energy              =    -318.05909548 Ry
     Harris-Foulkes estimate   =    -318.05922103 Ry
     estimated scf accuracy    <       0.00032698 Ry

     total magnetization       =     0.00 Bohr mag/cell
     absolute magnetization    =     0.00 Bohr mag/cell

     iteration #  5     ecut=    50.00 Ry     beta= 0.70
     Davidson diagonalization with overlap
     c_bands:  1 eigenvalues not converged
     ethr =  6.81E-07,  avg # of iterations = 13.0

     negative rho (up, down):  2.460E-03 2.460E-03


     -----------------------------------------------
     C6 coefficient =    307.21270113
     -----------------------------------------------



     -----------------------------------------------
     Non-local corr. energy    =       0.78767037 Ry
     -----------------------------------------------


     total cpu time spent up to now is      152.6 secs

     total energy              =    -318.05914035 Ry
     Harris-Foulkes estimate   =    -318.05914411 Ry
     estimated scf accuracy    <       0.00003113 Ry

     total magnetization       =    -0.00 Bohr mag/cell
     absolute magnetization    =     0.00 Bohr mag/cell

     iteration #  6     ecut=    50.00 Ry     beta= 0.70
     Davidson diagonalization with overlap
     ethr =  6.49E-08,  avg # of iterations =  3.5

     negative rho (up, down):  2.464E-03 2.464E-03


     -----------------------------------------------
     C6 coefficient =    307.18342025
     -----------------------------------------------



     -----------------------------------------------
     Non-local corr. energy    =       0.78767310 Ry
     -----------------------------------------------


     total cpu time spent up to now is      177.8 secs

     total energy              =    -318.05914653 Ry
     Harris-Foulkes estimate   =    -318.05914671 Ry
     estimated scf accuracy    <       0.00000095 Ry

     total magnetization       =     0.00 Bohr mag/cell
     absolute magnetization    =     0.00 Bohr mag/cell

     iteration #  7     ecut=    50.00 Ry     beta= 0.70
     Davidson diagonalization with overlap
     ethr =  1.99E-09,  avg # of iterations =  3.0

     negative rho (up, down):  2.465E-03 2.465E-03


     -----------------------------------------------
     C6 coefficient =    307.18075159
     -----------------------------------------------



     -----------------------------------------------
     Non-local corr. energy    =       0.78767557 Ry
     -----------------------------------------------


     total cpu time spent up to now is      202.9 secs

     total energy              =    -318.05914689 Ry
     Harris-Foulkes estimate   =    -318.05914692 Ry
     estimated scf accuracy    <       0.00000011 Ry

     total magnetization       =    -0.00 Bohr mag/cell
     absolute magnetization    =     0.00 Bohr mag/cell

     iteration #  8     ecut=    50.00 Ry     beta= 0.70
     Davidson diagonalization with overlap
     ethr =  2.23E-10,  avg # of iterations =  2.5

     negative rho (up, down):  2.465E-03 2.465E-03


     -----------------------------------------------
     C6 coefficient =    307.17809810
     -----------------------------------------------



     -----------------------------------------------
     Non-local corr. energy    =       0.78767749 Ry
     -----------------------------------------------


     total cpu time spent up to now is      227.9 secs

     total energy              =    -318.05914692 Ry
     Harris-Foulkes estimate   =    -318.05914692 Ry
     estimated scf accuracy    <       0.00000002 Ry

     total magnetization       =     0.00 Bohr mag/cell
     absolute magnetization    =     0.00 Bohr mag/cell

     iteration #  9     ecut=    50.00 Ry     beta= 0.70
     Davidson diagonalization with overlap
     ethr =  5.09E-11,  avg # of iterations =  3.0

     negative rho (up, down):  2.465E-03 2.465E-03


     -----------------------------------------------
     C6 coefficient =    307.17619826
     -----------------------------------------------



     -----------------------------------------------
     Non-local corr. energy    =       0.78767737 Ry
     -----------------------------------------------

 
     Magnetic moment per site:
     atom:    1    charge:    1.4812    magn:    0.0000    constr:    0.0000
     atom:    2    charge:    5.5620    magn:   -0.0000    constr:    0.0000
     atom:    3    charge:    5.5620    magn:    0.0000    constr:    0.0000
     atom:    4    charge:    5.5620    magn:   -0.0000    constr:    0.0000
     atom:    5    charge:    5.5620    magn:   -0.0000    constr:    0.0000
     atom:    6    charge:    5.5620    magn:   -0.0000    constr:    0.0000
     atom:    7    charge:    5.5620    magn:   -0.0000    constr:    0.0000

     total cpu time spent up to now is      252.5 secs

     End of self-consistent calculation

 ------ SPIN UP ------------


          k = 0.0000 0.0000 0.0000 (191162 PWs)   bands (ev):

   -35.6322 -32.6395 -32.6394 -32.6394 -31.4315 -31.4314 -20.7874 -16.7427
   -16.7426 -16.7426 -13.9049 -13.9049 -13.9048 -13.4976 -13.4975 -11.8947
   -11.8947 -11.8946 -11.6940 -11.6940 -11.6939 -10.6878 -10.6878 -10.6877
    -4.0624  -0.8058  -0.5024  -0.4503  -0.4503

     occupation numbers 
     1.0000   1.0000   1.0000   1.0000   1.0000   1.0000   1.0000   1.0000
     1.0000   1.0000   1.0000   1.0000   1.0000   1.0000   1.0000   1.0000
     1.0000   1.0000   1.0000   1.0000   1.0000   1.0000   1.0000   1.0000
     0.0000   0.0000   0.0000   0.0000   0.0000

 ------ SPIN DOWN ----------


          k = 0.0000 0.0000 0.0000 (191162 PWs)   bands (ev):

   -35.6322 -32.6395 -32.6394 -32.6394 -31.4315 -31.4314 -20.7874 -16.7427
   -16.7426 -16.7426 -13.9049 -13.9049 -13.9048 -13.4976 -13.4975 -11.8947
   -11.8947 -11.8946 -11.6940 -11.6940 -11.6939 -10.6878 -10.6878 -10.6878
    -4.0624  -0.8055  -0.4505  -0.4503  -0.4502

     occupation numbers 
     1.0000   1.0000   1.0000   1.0000   1.0000   1.0000   1.0000   1.0000
     1.0000   1.0000   1.0000   1.0000   1.0000   1.0000   1.0000   1.0000
     1.0000   1.0000   1.0000   1.0000   1.0000   1.0000   1.0000   1.0000
     0.0000   0.0000   0.0000   0.0000   0.0000

     the Fermi energy is    -9.2444 ev

!    total energy              =    -318.05914692 Ry
     Harris-Foulkes estimate   =    -318.05914692 Ry
     estimated scf accuracy    <          3.7E-09 Ry

     The total energy is the sum of the following terms:

     one-electron contribution =   -1178.41597456 Ry
     hartree contribution      =     597.48533788 Ry
     xc contribution           =     -67.14672960 Ry
     ewald contribution        =     330.01821936 Ry
     smearing contrib. (-TS)   =      -0.00000000 Ry

     total magnetization       =    -0.00 Bohr mag/cell
     absolute magnetization    =     0.00 Bohr mag/cell

     convergence has been achieved in   9 iterations

     negative rho (up, down):  2.465E-03 2.465E-03


     -----------------------------------------------
     C6 coefficient =    307.17619826
     -----------------------------------------------



     -----------------------------------------------
     Non-local corr. energy    =       0.78767737 Ry
     -----------------------------------------------


     Forces acting on atoms (cartesian axes, Ry/au):

     atom    1 type  1   force =     0.00000000    0.00000000    0.00000000
     atom    2 type  2   force =     0.04385147    0.00000000    0.00000000
     atom    3 type  2   force =    -0.04385147    0.00000000    0.00000000
     atom    4 type  2   force =     0.00000000    0.00000000   -0.04385147
     atom    5 type  2   force =     0.00000000    0.00000000    0.04385147
     atom    6 type  2   force =     0.00000000   -0.04385147   -0.00000000
     atom    7 type  2   force =     0.00000000    0.04385147   -0.00000000
     The non-local contrib.  to forces
     atom    1 type  1   force =     0.00000000    0.00000000    0.00000000
     atom    2 type  2   force =    -2.29015707    0.00000000   -0.00000000
     atom    3 type  2   force =     2.29015707   -0.00000000    0.00000000
     atom    4 type  2   force =     0.00000000    0.00000000    2.29015707
     atom    5 type  2   force =     0.00000000    0.00000000   -2.29015707
     atom    6 type  2   force =    -0.00000000    2.29015707    0.00000000
     atom    7 type  2   force =     0.00000000   -2.29015707   -0.00000000
     The ionic contribution  to forces
     atom    1 type  1   force =     0.00000000    0.00000000    0.00000000
     atom    2 type  2   force =    27.10423294   -0.00000000    0.00000000
     atom    3 type  2   force =   -27.10423294    0.00000000   -0.00000000
     atom    4 type  2   force =    -0.00000000    0.00000000  -27.10423294
     atom    5 type  2   force =     0.00000000   -0.00000000   27.10423294
     atom    6 type  2   force =    -0.00000000  -27.10423294    0.00000000
     atom    7 type  2   force =     0.00000000   27.10423294   -0.00000000
     The local contribution  to forces
     atom    1 type  1   force =    -0.00000143    0.00000019    0.00000218
     atom    2 type  2   force =   -24.77036840    0.00000104    0.00000043
     atom    3 type  2   force =    24.77037099    0.00000042   -0.00000043
     atom    4 type  2   force =    -0.00000081    0.00000170   24.77037627
     atom    5 type  2   force =     0.00000071   -0.00000119  -24.77038305
     atom    6 type  2   force =    -0.00000007   24.77038005    0.00000128
     atom    7 type  2   force =     0.00000010  -24.77038337   -0.00000184
     The core correction contribution to forces
     atom    1 type  1   force =    -0.00000007   -0.00000010    0.00000013
     atom    2 type  2   force =     0.00000000    0.00000000    0.00000000
     atom    3 type  2   force =     0.00000000    0.00000000    0.00000000
     atom    4 type  2   force =     0.00000000    0.00000000    0.00000000
     atom    5 type  2   force =     0.00000000    0.00000000    0.00000000
     atom    6 type  2   force =     0.00000000    0.00000000    0.00000000
     atom    7 type  2   force =     0.00000000    0.00000000    0.00000000
     The Hubbard contrib.    to forces
     atom    1 type  1   force =     0.00000000    0.00000000    0.00000000
     atom    2 type  2   force =     0.00000000    0.00000000    0.00000000
     atom    3 type  2   force =     0.00000000    0.00000000    0.00000000
     atom    4 type  2   force =     0.00000000    0.00000000    0.00000000
     atom    5 type  2   force =     0.00000000    0.00000000    0.00000000
     atom    6 type  2   force =     0.00000000    0.00000000    0.00000000
     atom    7 type  2   force =     0.00000000    0.00000000    0.00000000
     The SCF correction term to forces
     atom    1 type  1   force =     0.00000074   -0.00000227    0.00000103
     atom    2 type  2   force =     0.00014392   -0.00000170   -0.00000035
     atom    3 type  2   force =    -0.00014685   -0.00000090    0.00000122
     atom    4 type  2   force =     0.00000149   -0.00000263   -0.00015173
     atom    5 type  2   force =    -0.00000095    0.00000182    0.00015963
     atom    6 type  2   force =     0.00000021   -0.00015627   -0.00000189
     atom    7 type  2   force =    -0.00000015    0.00015733    0.00000314

     Total force =     0.107414     Total SCF correction =     0.000374

     BFGS Geometry Optimization

     number of scf cycles    =   1
     number of bfgs steps    =   0

     energy   new            =    -318.0591469214 Ry

     new trust radius        =       0.0438514692 bohr
     new conv_thr            =       0.0000000100 Ry


ATOMIC_POSITIONS (angstrom)
S        0.000000000   0.000000000   0.000000000
F        1.617013954   0.000000000   0.000000000
F       -1.617013954   0.000000000   0.000000000
F        0.000000000   0.000000000  -1.617013954
F        0.000000000   0.000000000   1.617013954
F        0.000000000  -1.617013954  -0.000000000
F        0.000000000   1.617013954  -0.000000000



     Writing output data file SF6-vdw-df2.save
     Check: negative starting charge=(component1):   -0.003214
     NEW-OLD atomic charge density approx. for the potential
     Check: negative starting charge=(component1):   -0.003185

     negative rho (up, down):  2.443E-03 2.443E-03


     -----------------------------------------------
     C6 coefficient =    312.80941576
     -----------------------------------------------



     -----------------------------------------------
     Non-local corr. energy    =       0.79093861 Ry
     -----------------------------------------------


     total cpu time spent up to now is      285.0 secs

     Self-consistent Calculation

     iteration #  1     ecut=    50.00 Ry     beta= 0.70
     Davidson diagonalization with overlap
     ethr =  1.00E-06,  avg # of iterations =  7.0

     negative rho (up, down):  2.435E-03 2.435E-03


     -----------------------------------------------
     C6 coefficient =    317.13252664
     -----------------------------------------------



     -----------------------------------------------
     Non-local corr. energy    =       0.78999567 Ry
     -----------------------------------------------


     total cpu time spent up to now is      313.0 secs

     total energy              =    -318.06577564 Ry
     Harris-Foulkes estimate   =    -318.06717583 Ry
     estimated scf accuracy    <       0.00320036 Ry

     total magnetization       =     0.00 Bohr mag/cell
     absolute magnetization    =     0.00 Bohr mag/cell

     iteration #  2     ecut=    50.00 Ry     beta= 0.70
     Davidson diagonalization with overlap
     ethr =  6.67E-06,  avg # of iterations =  6.0

     negative rho (up, down):  2.448E-03 2.448E-03


     -----------------------------------------------
     C6 coefficient =    314.87161622
     -----------------------------------------------



     -----------------------------------------------
     Non-local corr. energy    =       0.79047312 Ry
     -----------------------------------------------


     total cpu time spent up to now is      338.8 secs

     total energy              =    -318.06645465 Ry
     Harris-Foulkes estimate   =    -318.06674641 Ry
     estimated scf accuracy    <       0.00057801 Ry

     total magnetization       =    -0.00 Bohr mag/cell
     absolute magnetization    =     0.00 Bohr mag/cell

     iteration #  3     ecut=    50.00 Ry     beta= 0.70
     Davidson diagonalization with overlap
     ethr =  1.20E-06,  avg # of iterations =  5.0

     negative rho (up, down):  2.447E-03 2.446E-03


     -----------------------------------------------
     C6 coefficient =    315.20789170
     -----------------------------------------------



     -----------------------------------------------
     Non-local corr. energy    =       0.79034706 Ry
     -----------------------------------------------


     total cpu time spent up to now is      364.6 secs

     total energy              =    -318.06660140 Ry
     Harris-Foulkes estimate   =    -318.06661515 Ry
     estimated scf accuracy    <       0.00005731 Ry

     total magnetization       =     0.00 Bohr mag/cell
     absolute magnetization    =     0.00 Bohr mag/cell

     iteration #  4     ecut=    50.00 Ry     beta= 0.70
     Davidson diagonalization with overlap
     ethr =  1.19E-07,  avg # of iterations =  3.0

     negative rho (up, down):  2.447E-03 2.447E-03


     -----------------------------------------------
     C6 coefficient =    315.24220368
     -----------------------------------------------



     -----------------------------------------------
     Non-local corr. energy    =       0.79037183 Ry
     -----------------------------------------------


     total cpu time spent up to now is      389.8 secs

     total energy              =    -318.06661396 Ry
     Harris-Foulkes estimate   =    -318.06662030 Ry
     estimated scf accuracy    <       0.00001568 Ry

     total magnetization       =     0.00 Bohr mag/cell
     absolute magnetization    =     0.00 Bohr mag/cell

     iteration #  5     ecut=    50.00 Ry     beta= 0.70
     Davidson diagonalization with overlap
     ethr =  3.27E-08,  avg # of iterations =  2.0

     negative rho (up, down):  2.447E-03 2.447E-03


     -----------------------------------------------
     C6 coefficient =    315.25840174
     -----------------------------------------------



     -----------------------------------------------
     Non-local corr. energy    =       0.79036793 Ry
     -----------------------------------------------


     total cpu time spent up to now is      414.3 secs

     total energy              =    -318.06661739 Ry
     Harris-Foulkes estimate   =    -318.06661731 Ry
     estimated scf accuracy    <       0.00000022 Ry

     total magnetization       =     0.00 Bohr mag/cell
     absolute magnetization    =     0.00 Bohr mag/cell

     iteration #  6     ecut=    50.00 Ry     beta= 0.70
     Davidson diagonalization with overlap
     ethr =  4.51E-10,  avg # of iterations =  2.5

     negative rho (up, down):  2.448E-03 2.448E-03


     -----------------------------------------------
     C6 coefficient =    315.26027543
     -----------------------------------------------



     -----------------------------------------------
     Non-local corr. energy    =       0.79036819 Ry
     -----------------------------------------------

 
     Magnetic moment per site:
     atom:    1    charge:    1.4585    magn:   -0.0000    constr:    0.0000
     atom:    2    charge:    5.5547    magn:    0.0000    constr:    0.0000
     atom:    3    charge:    5.5547    magn:    0.0000    constr:    0.0000
     atom:    4    charge:    5.5547    magn:    0.0000    constr:    0.0000
     atom:    5    charge:    5.5547    magn:    0.0000    constr:    0.0000
     atom:    6    charge:    5.5547    magn:    0.0000    constr:    0.0000
     atom:    7    charge:    5.5547    magn:    0.0000    constr:    0.0000

     total cpu time spent up to now is      439.0 secs

     End of self-consistent calculation

 ------ SPIN UP ------------


          k = 0.0000 0.0000 0.0000 (191162 PWs)   bands (ev):

   -35.2539 -32.4528 -32.4528 -32.4528 -31.3530 -31.3530 -20.9178 -16.6585
   -16.6584 -16.6584 -13.7390 -13.7390 -13.7390 -13.4382 -13.4382 -11.8667
   -11.8667 -11.8667 -11.6721 -11.6721 -11.6721 -10.7327 -10.7327 -10.7327
    -4.7287  -0.8265  -0.5115  -0.4926  -0.4925

     occupation numbers 
     1.0000   1.0000   1.0000   1.0000   1.0000   1.0000   1.0000   1.0000
     1.0000   1.0000   1.0000   1.0000   1.0000   1.0000   1.0000   1.0000
     1.0000   1.0000   1.0000   1.0000   1.0000   1.0000   1.0000   1.0000
     0.0000   0.0000   0.0000   0.0000   0.0000

 ------ SPIN DOWN ----------


          k = 0.0000 0.0000 0.0000 (191162 PWs)   bands (ev):

   -35.2539 -32.4528 -32.4528 -32.4528 -31.3530 -31.3530 -20.9178 -16.6585
   -16.6584 -16.6584 -13.7390 -13.7390 -13.7390 -13.4382 -13.4382 -11.8667
   -11.8667 -11.8667 -11.6721 -11.6720 -11.6720 -10.7327 -10.7327 -10.7327
    -4.7287  -0.8265  -0.4927  -0.4926  -0.4926

     occupation numbers 
     1.0000   1.0000   1.0000   1.0000   1.0000   1.0000   1.0000   1.0000
     1.0000   1.0000   1.0000   1.0000   1.0000   1.0000   1.0000   1.0000
     1.0000   1.0000   1.0000   1.0000   1.0000   1.0000   1.0000   1.0000
     0.0000   0.0000   0.0000   0.0000   0.0000

     the Fermi energy is    -9.1815 ev

!    total energy              =    -318.06661746 Ry
     Harris-Foulkes estimate   =    -318.06661746 Ry
     estimated scf accuracy    <          6.3E-09 Ry

     The total energy is the sum of the following terms:

     one-electron contribution =   -1164.73989310 Ry
     hartree contribution      =     590.68506441 Ry
     xc contribution           =     -67.00176055 Ry
     ewald contribution        =     322.98997178 Ry
     smearing contrib. (-TS)   =      -0.00000000 Ry

     total magnetization       =     0.00 Bohr mag/cell
     absolute magnetization    =     0.00 Bohr mag/cell

     convergence has been achieved in   6 iterations

     negative rho (up, down):  2.448E-03 2.448E-03


     -----------------------------------------------
     C6 coefficient =    315.26027543
     -----------------------------------------------



     -----------------------------------------------
     Non-local corr. energy    =       0.79036819 Ry
     -----------------------------------------------


     Forces acting on atoms (cartesian axes, Ry/au):

     atom    1 type  1   force =     0.00000000    0.00000000    0.00000000
     atom    2 type  2   force =     0.01375410   -0.00000000    0.00000000
     atom    3 type  2   force =    -0.01375410    0.00000000    0.00000000
     atom    4 type  2   force =     0.00000000    0.00000000   -0.01375410
     atom    5 type  2   force =     0.00000000    0.00000000    0.01375410
     atom    6 type  2   force =    -0.00000000   -0.01375410    0.00000000
     atom    7 type  2   force =     0.00000000    0.01375410    0.00000000
     The non-local contrib.  to forces
     atom    1 type  1   force =     0.00000000    0.00000000    0.00000000
     atom    2 type  2   force =    -2.21202282   -0.00000000    0.00000000
     atom    3 type  2   force =     2.21202282    0.00000000   -0.00000000
     atom    4 type  2   force =     0.00000000    0.00000000    2.21202282
     atom    5 type  2   force =    -0.00000000    0.00000000   -2.21202282
     atom    6 type  2   force =    -0.00000000    2.21202282    0.00000000
     atom    7 type  2   force =    -0.00000000   -2.21202282    0.00000000
     The ionic contribution  to forces
     atom    1 type  1   force =     0.00000000    0.00000000    0.00000000
     atom    2 type  2   force =    26.32602166   -0.00000000    0.00000000
     atom    3 type  2   force =   -26.32602166    0.00000000    0.00000000
     atom    4 type  2   force =    -0.00000000   -0.00000000  -26.32602166
     atom    5 type  2   force =     0.00000000    0.00000000   26.32602166
     atom    6 type  2   force =    -0.00000000  -26.32602166   -0.00000000
     atom    7 type  2   force =     0.00000000   26.32602166    0.00000000
     The local contribution  to forces
     atom    1 type  1   force =    -0.00000233   -0.00000160    0.00000142
     atom    2 type  2   force =   -24.10031079   -0.00000052   -0.00000097
     atom    3 type  2   force =    24.10031915    0.00000090   -0.00000169
     atom    4 type  2   force =    -0.00000184    0.00000029   24.10031167
     atom    5 type  2   force =    -0.00000155    0.00000146  -24.10031690
     atom    6 type  2   force =    -0.00000014   24.10031453   -0.00000146
     atom    7 type  2   force =    -0.00000284  -24.10031108   -0.00000021
     The core correction contribution to forces
     atom    1 type  1   force =    -0.00000017   -0.00000023    0.00000027
     atom    2 type  2   force =     0.00000000    0.00000000    0.00000000
     atom    3 type  2   force =     0.00000000    0.00000000    0.00000000
     atom    4 type  2   force =     0.00000000    0.00000000    0.00000000
     atom    5 type  2   force =     0.00000000    0.00000000    0.00000000
     atom    6 type  2   force =     0.00000000    0.00000000    0.00000000
     atom    7 type  2   force =     0.00000000    0.00000000    0.00000000
     The Hubbard contrib.    to forces
     atom    1 type  1   force =     0.00000000    0.00000000    0.00000000
     atom    2 type  2   force =     0.00000000    0.00000000    0.00000000
     atom    3 type  2   force =     0.00000000    0.00000000    0.00000000
     atom    4 type  2   force =     0.00000000    0.00000000    0.00000000
     atom    5 type  2   force =     0.00000000    0.00000000    0.00000000
     atom    6 type  2   force =     0.00000000    0.00000000    0.00000000
     atom    7 type  2   force =     0.00000000    0.00000000    0.00000000
     The SCF correction term to forces
     atom    1 type  1   force =    -0.00000072   -0.00000512    0.00000681
     atom    2 type  2   force =     0.00006182    0.00000058    0.00000249
     atom    3 type  2   force =    -0.00007471   -0.00000295    0.00000287
     atom    4 type  2   force =     0.00000232   -0.00000121   -0.00006853
     atom    5 type  2   force =     0.00000233   -0.00000318    0.00007347
     atom    6 type  2   force =    -0.00000025   -0.00007026    0.00000341
     atom    7 type  2   force =     0.00000466    0.00006687    0.00000127

     Total force =     0.033691     Total SCF correction =     0.000170

     number of scf cycles    =   2
     number of bfgs steps    =   1

     energy   old            =    -318.0591469214 Ry
     energy   new            =    -318.0666174646 Ry

     CASE: energy  _new < energy  _old

     new trust radius        =       0.0200395404 bohr
     new conv_thr            =       0.0000000075 Ry


ATOMIC_POSITIONS (angstrom)
S        0.000000000   0.000000000   0.000000000
F        1.627618422  -0.000000000   0.000000000
F       -1.627618422   0.000000000   0.000000000
F        0.000000000   0.000000000  -1.627618422
F        0.000000000   0.000000000   1.627618422
F       -0.000000000  -1.627618422   0.000000000
F        0.000000000   1.627618422   0.000000000



     Writing output data file SF6-vdw-df2.save
     Check: negative starting charge=(component1):   -0.003185
     NEW-OLD atomic charge density approx. for the potential
     Check: negative starting charge=(component1):   -0.003152

     negative rho (up, down):  2.439E-03 2.439E-03


     -----------------------------------------------
     C6 coefficient =    317.92580260
     -----------------------------------------------



     -----------------------------------------------
     Non-local corr. energy    =       0.79182896 Ry
     -----------------------------------------------


     total cpu time spent up to now is      471.3 secs

     Self-consistent Calculation

     iteration #  1     ecut=    50.00 Ry     beta= 0.70
     Davidson diagonalization with overlap
     ethr =  1.00E-06,  avg # of iterations = 10.0

     negative rho (up, down):  2.428E-03 2.428E-03


     -----------------------------------------------
     C6 coefficient =    319.88174391
     -----------------------------------------------



     -----------------------------------------------
     Non-local corr. energy    =       0.79140231 Ry
     -----------------------------------------------


     total cpu time spent up to now is      499.1 secs

     total energy              =    -318.06735357 Ry
     Harris-Foulkes estimate   =    -318.06762777 Ry
     estimated scf accuracy    <       0.00065330 Ry

     total magnetization       =     0.00 Bohr mag/cell
     absolute magnetization    =     0.00 Bohr mag/cell

     iteration #  2     ecut=    50.00 Ry     beta= 0.70
     Davidson diagonalization with overlap
     ethr =  1.36E-06,  avg # of iterations =  7.5

     negative rho (up, down):  2.430E-03 2.430E-03


     -----------------------------------------------
     C6 coefficient =    318.85443530
     -----------------------------------------------



     -----------------------------------------------
     Non-local corr. energy    =       0.79162286 Ry
     -----------------------------------------------


     total cpu time spent up to now is      525.0 secs

     total energy              =    -318.06748861 Ry
     Harris-Foulkes estimate   =    -318.06754935 Ry
     estimated scf accuracy    <       0.00012088 Ry

     total magnetization       =     0.00 Bohr mag/cell
     absolute magnetization    =     0.00 Bohr mag/cell

     iteration #  3     ecut=    50.00 Ry     beta= 0.70
     Davidson diagonalization with overlap
     ethr =  2.52E-07,  avg # of iterations =  2.0

     negative rho (up, down):  2.429E-03 2.429E-03


     -----------------------------------------------
     C6 coefficient =    319.00324600
     -----------------------------------------------



     -----------------------------------------------
     Non-local corr. energy    =       0.79156419 Ry
     -----------------------------------------------


     total cpu time spent up to now is      550.0 secs

     total energy              =    -318.06751955 Ry
     Harris-Foulkes estimate   =    -318.06752316 Ry
     estimated scf accuracy    <       0.00001335 Ry

     total magnetization       =     0.00 Bohr mag/cell
     absolute magnetization    =     0.00 Bohr mag/cell

     iteration #  4     ecut=    50.00 Ry     beta= 0.70
     Davidson diagonalization with overlap
     ethr =  2.78E-08,  avg # of iterations =  2.5

     negative rho (up, down):  2.429E-03 2.429E-03


     -----------------------------------------------
     C6 coefficient =    319.02298995
     -----------------------------------------------



     -----------------------------------------------
     Non-local corr. energy    =       0.79157451 Ry
     -----------------------------------------------


     total cpu time spent up to now is      575.1 secs

     total energy              =    -318.06752252 Ry
     Harris-Foulkes estimate   =    -318.06752377 Ry
     estimated scf accuracy    <       0.00000315 Ry

     total magnetization       =     0.00 Bohr mag/cell
     absolute magnetization    =     0.00 Bohr mag/cell

     iteration #  5     ecut=    50.00 Ry     beta= 0.70
     Davidson diagonalization with overlap
     ethr =  6.57E-09,  avg # of iterations =  2.0

     negative rho (up, down):  2.429E-03 2.429E-03


     -----------------------------------------------
     C6 coefficient =    319.02815543
     -----------------------------------------------



     -----------------------------------------------
     Non-local corr. energy    =       0.79157310 Ry
     -----------------------------------------------


     total cpu time spent up to now is      599.5 secs

     total energy              =    -318.06752321 Ry
     Harris-Foulkes estimate   =    -318.06752320 Ry
     estimated scf accuracy    <       0.00000005 Ry

     total magnetization       =    -0.00 Bohr mag/cell
     absolute magnetization    =     0.00 Bohr mag/cell

     iteration #  6     ecut=    50.00 Ry     beta= 0.70
     Davidson diagonalization with overlap
     ethr =  1.00E-10,  avg # of iterations =  3.0

     negative rho (up, down):  2.429E-03 2.429E-03


     -----------------------------------------------
     C6 coefficient =    319.02929641
     -----------------------------------------------



     -----------------------------------------------
     Non-local corr. energy    =       0.79157323 Ry
     -----------------------------------------------

 
     Magnetic moment per site:
     atom:    1    charge:    1.4492    magn:   -0.0000    constr:    0.0000
     atom:    2    charge:    5.5493    magn:    0.0000    constr:    0.0000
     atom:    3    charge:    5.5493    magn:    0.0000    constr:    0.0000
     atom:    4    charge:    5.5493    magn:    0.0000    constr:    0.0000
     atom:    5    charge:    5.5493    magn:    0.0000    constr:    0.0000
     atom:    6    charge:    5.5493    magn:    0.0000    constr:    0.0000
     atom:    7    charge:    5.5493    magn:    0.0000    constr:    0.0000

     total cpu time spent up to now is      623.8 secs

     End of self-consistent calculation

 ------ SPIN UP ------------


          k = 0.0000 0.0000 0.0000 (191162 PWs)   bands (ev):

   -35.0871 -32.3714 -32.3714 -32.3713 -31.3182 -31.3182 -20.9766 -16.6187
   -16.6186 -16.6186 -13.6664 -13.6663 -13.6663 -13.4110 -13.4110 -11.8540
   -11.8540 -11.8540 -11.6621 -11.6621 -11.6621 -10.7517 -10.7516 -10.7516
    -5.0174  -0.8344  -0.5482  -0.5482  -0.5127

     occupation numbers 
     1.0000   1.0000   1.0000   1.0000   1.0000   1.0000   1.0000   1.0000
     1.0000   1.0000   1.0000   1.0000   1.0000   1.0000   1.0000   1.0000
     1.0000   1.0000   1.0000   1.0000   1.0000   1.0000   1.0000   1.0000
     0.0000   0.0000   0.0000   0.0000   0.0000

 ------ SPIN DOWN ----------


          k = 0.0000 0.0000 0.0000 (191162 PWs)   bands (ev):

   -35.0871 -32.3714 -32.3714 -32.3713 -31.3182 -31.3182 -20.9766 -16.6187
   -16.6186 -16.6186 -13.6664 -13.6663 -13.6663 -13.4110 -13.4110 -11.8540
   -11.8540 -11.8539 -11.6621 -11.6621 -11.6621 -10.7517 -10.7516 -10.7516
    -5.0174  -0.8344  -0.5482  -0.5482  -0.5481

     occupation numbers 
     1.0000   1.0000   1.0000   1.0000   1.0000   1.0000   1.0000   1.0000
     1.0000   1.0000   1.0000   1.0000   1.0000   1.0000   1.0000   1.0000
     1.0000   1.0000   1.0000   1.0000   1.0000   1.0000   1.0000   1.0000
     0.0000   0.0000   0.0000   0.0000   0.0000

     the Fermi energy is    -9.1549 ev

!    total energy              =    -318.06752323 Ry
     Harris-Foulkes estimate   =    -318.06752323 Ry
     estimated scf accuracy    <          1.6E-09 Ry

     The total energy is the sum of the following terms:

     one-electron contribution =   -1158.61440870 Ry
     hartree contribution      =     587.63970247 Ry
     xc contribution           =     -66.93820683 Ry
     ewald contribution        =     319.84538983 Ry
     smearing contrib. (-TS)   =      -0.00000000 Ry

     total magnetization       =    -0.00 Bohr mag/cell
     absolute magnetization    =     0.00 Bohr mag/cell

     convergence has been achieved in   6 iterations

     negative rho (up, down):  2.429E-03 2.429E-03


     -----------------------------------------------
     C6 coefficient =    319.02929641
     -----------------------------------------------



     -----------------------------------------------
     Non-local corr. energy    =       0.79157323 Ry
     -----------------------------------------------


     Forces acting on atoms (cartesian axes, Ry/au):

     atom    1 type  1   force =     0.00000000    0.00000000    0.00000000
     atom    2 type  2   force =     0.00147327    0.00000000    0.00000000
     atom    3 type  2   force =    -0.00147327    0.00000000    0.00000000
     atom    4 type  2   force =     0.00000000    0.00000000   -0.00147327
     atom    5 type  2   force =     0.00000000    0.00000000    0.00147327
     atom    6 type  2   force =    -0.00000000   -0.00147327   -0.00000000
     atom    7 type  2   force =     0.00000000    0.00147327    0.00000000
     The non-local contrib.  to forces
     atom    1 type  1   force =     0.00000000    0.00000000    0.00000000
     atom    2 type  2   force =    -2.17627360   -0.00000000    0.00000000
     atom    3 type  2   force =     2.17627360    0.00000000   -0.00000000
     atom    4 type  2   force =     0.00000000   -0.00000000    2.17627360
     atom    5 type  2   force =     0.00000000    0.00000000   -2.17627360
     atom    6 type  2   force =     0.00000000    2.17627360    0.00000000
     atom    7 type  2   force =     0.00000000   -2.17627360   -0.00000000
     The ionic contribution  to forces
     atom    1 type  1   force =     0.00000000    0.00000000   -0.00000000
     atom    2 type  2   force =    25.98139016   -0.00000000    0.00000000
     atom    3 type  2   force =   -25.98139016    0.00000000   -0.00000000
     atom    4 type  2   force =     0.00000000   -0.00000000  -25.98139016
     atom    5 type  2   force =     0.00000000    0.00000000   25.98139016
     atom    6 type  2   force =     0.00000000  -25.98139016   -0.00000000
     atom    7 type  2   force =    -0.00000000   25.98139016    0.00000000
     The local contribution  to forces
     atom    1 type  1   force =    -0.00000104   -0.00000090   -0.00000002
     atom    2 type  2   force =   -23.80366496    0.00000039   -0.00000213
     atom    3 type  2   force =    23.80366708   -0.00000138   -0.00000006
     atom    4 type  2   force =     0.00000011   -0.00000043   23.80365427
     atom    5 type  2   force =    -0.00000085    0.00000037  -23.80365561
     atom    6 type  2   force =    -0.00000072   23.80365946   -0.00000112
     atom    7 type  2   force =    -0.00000086  -23.80365660   -0.00000056
     The core correction contribution to forces
     atom    1 type  1   force =    -0.00000006   -0.00000005    0.00000017
     atom    2 type  2   force =     0.00000000    0.00000000    0.00000000
     atom    3 type  2   force =     0.00000000    0.00000000    0.00000000
     atom    4 type  2   force =     0.00000000    0.00000000    0.00000000
     atom    5 type  2   force =     0.00000000    0.00000000    0.00000000
     atom    6 type  2   force =     0.00000000    0.00000000    0.00000000
     atom    7 type  2   force =     0.00000000    0.00000000    0.00000000
     The Hubbard contrib.    to forces
     atom    1 type  1   force =     0.00000000    0.00000000    0.00000000
     atom    2 type  2   force =     0.00000000    0.00000000    0.00000000
     atom    3 type  2   force =     0.00000000    0.00000000    0.00000000
     atom    4 type  2   force =     0.00000000    0.00000000    0.00000000
     atom    5 type  2   force =     0.00000000    0.00000000    0.00000000
     atom    6 type  2   force =     0.00000000    0.00000000    0.00000000
     atom    7 type  2   force =     0.00000000    0.00000000    0.00000000
     The SCF correction term to forces
     atom    1 type  1   force =     0.00000034   -0.00000050    0.00000492
     atom    2 type  2   force =     0.00002303    0.00000027    0.00000362
     atom    3 type  2   force =    -0.00002691    0.00000108    0.00000126
     atom    4 type  2   force =    -0.00000041    0.00000101   -0.00000918
     atom    5 type  2   force =     0.00000160   -0.00000087    0.00001023
     atom    6 type  2   force =     0.00000126   -0.00001651    0.00000298
     atom    7 type  2   force =     0.00000149    0.00001236    0.00000110

     Total force =     0.003609     Total SCF correction =     0.000044

     number of scf cycles    =   3
     number of bfgs steps    =   2

     energy   old            =    -318.0666174646 Ry
     energy   new            =    -318.0675232260 Ry

     CASE: energy  _new < energy  _old

     new trust radius        =       0.0024040379 bohr
     new conv_thr            =       0.0000000009 Ry


ATOMIC_POSITIONS (angstrom)
S        0.000000000   0.000000000   0.000000000
F        1.628890584  -0.000000000   0.000000000
F       -1.628890584   0.000000000   0.000000000
F        0.000000000   0.000000000  -1.628890584
F        0.000000000   0.000000000   1.628890584
F       -0.000000000  -1.628890584   0.000000000
F        0.000000000   1.628890584   0.000000000



     Writing output data file SF6-vdw-df2.save
     Check: negative starting charge=(component1):   -0.003152
     NEW-OLD atomic charge density approx. for the potential
     Check: negative starting charge=(component1):   -0.003148

     negative rho (up, down):  2.429E-03 2.429E-03


     -----------------------------------------------
     C6 coefficient =    319.35587946
     -----------------------------------------------



     -----------------------------------------------
     Non-local corr. energy    =       0.79174752 Ry
     -----------------------------------------------


     total cpu time spent up to now is      656.1 secs

     Self-consistent Calculation

     iteration #  1     ecut=    50.00 Ry     beta= 0.70
     Davidson diagonalization with overlap
     ethr =  1.00E-06,  avg # of iterations =  2.0

     Threshold (ethr) on eigenvalues was too large:
     Diagonalizing with lowered threshold

     Davidson diagonalization with overlap
     ethr =  2.01E-08,  avg # of iterations =  2.0

     negative rho (up, down):  2.427E-03 2.427E-03


     -----------------------------------------------
     C6 coefficient =    319.58682987
     -----------------------------------------------



     -----------------------------------------------
     Non-local corr. energy    =       0.79169407 Ry
     -----------------------------------------------


     total cpu time spent up to now is      691.1 secs

     total energy              =    -318.06753173 Ry
     Harris-Foulkes estimate   =    -318.06753570 Ry
     estimated scf accuracy    <       0.00000946 Ry

     total magnetization       =    -0.00 Bohr mag/cell
     absolute magnetization    =     0.00 Bohr mag/cell

     iteration #  2     ecut=    50.00 Ry     beta= 0.70
     Davidson diagonalization with overlap
     ethr =  1.97E-08,  avg # of iterations =  2.0

     negative rho (up, down):  2.427E-03 2.427E-03


     -----------------------------------------------
     C6 coefficient =    319.46197316
     -----------------------------------------------



     -----------------------------------------------
     Non-local corr. energy    =       0.79172270 Ry
     -----------------------------------------------


     total cpu time spent up to now is      716.1 secs

     total energy              =    -318.06753365 Ry
     Harris-Foulkes estimate   =    -318.06753469 Ry
     estimated scf accuracy    <       0.00000202 Ry

     total magnetization       =     0.00 Bohr mag/cell
     absolute magnetization    =     0.00 Bohr mag/cell

     iteration #  3     ecut=    50.00 Ry     beta= 0.70
     Davidson diagonalization with overlap
     ethr =  4.22E-09,  avg # of iterations =  2.0

     negative rho (up, down):  2.427E-03 2.427E-03


     -----------------------------------------------
     C6 coefficient =    319.47791042
     -----------------------------------------------



     -----------------------------------------------
     Non-local corr. energy    =       0.79171582 Ry
     -----------------------------------------------


     total cpu time spent up to now is      741.2 secs

     total energy              =    -318.06753417 Ry
     Harris-Foulkes estimate   =    -318.06753424 Ry
     estimated scf accuracy    <       0.00000024 Ry

     total magnetization       =    -0.00 Bohr mag/cell
     absolute magnetization    =     0.00 Bohr mag/cell

     iteration #  4     ecut=    50.00 Ry     beta= 0.70
     Davidson diagonalization with overlap
     ethr =  4.94E-10,  avg # of iterations =  2.0

     negative rho (up, down):  2.427E-03 2.427E-03


     -----------------------------------------------
     C6 coefficient =    319.48221994
     -----------------------------------------------



     -----------------------------------------------
     Non-local corr. energy    =       0.79171668 Ry
     -----------------------------------------------


     total cpu time spent up to now is      766.2 secs

     total energy              =    -318.06753422 Ry
     Harris-Foulkes estimate   =    -318.06753424 Ry
     estimated scf accuracy    <       0.00000005 Ry

     total magnetization       =     0.00 Bohr mag/cell
     absolute magnetization    =     0.00 Bohr mag/cell

     iteration #  5     ecut=    50.00 Ry     beta= 0.70
     Davidson diagonalization with overlap
     ethr =  9.53E-11,  avg # of iterations =  2.0

     negative rho (up, down):  2.427E-03 2.427E-03


     -----------------------------------------------
     C6 coefficient =    319.48268821
     -----------------------------------------------



     -----------------------------------------------
     Non-local corr. energy    =       0.79171662 Ry
     -----------------------------------------------


     total cpu time spent up to now is      790.7 secs

     total energy              =    -318.06753423 Ry
     Harris-Foulkes estimate   =    -318.06753423 Ry
     estimated scf accuracy    <          1.6E-09 Ry

     total magnetization       =    -0.00 Bohr mag/cell
     absolute magnetization    =     0.00 Bohr mag/cell

     iteration #  6     ecut=    50.00 Ry     beta= 0.70
     Davidson diagonalization with overlap
     ethr =  3.32E-12,  avg # of iterations =  3.0

     negative rho (up, down):  2.427E-03 2.427E-03


     -----------------------------------------------
     C6 coefficient =    319.48294498
     -----------------------------------------------



     -----------------------------------------------
     Non-local corr. energy    =       0.79171654 Ry
     -----------------------------------------------


     total cpu time spent up to now is      815.9 secs

     total energy              =    -318.06753423 Ry
     Harris-Foulkes estimate   =    -318.06753423 Ry
     estimated scf accuracy    <          1.3E-09 Ry

     total magnetization       =    -0.00 Bohr mag/cell
     absolute magnetization    =     0.00 Bohr mag/cell

     iteration #  7     ecut=    50.00 Ry     beta= 0.70
     Davidson diagonalization with overlap
     ethr =  2.66E-12,  avg # of iterations =  2.0

     negative rho (up, down):  2.427E-03 2.427E-03


     -----------------------------------------------
     C6 coefficient =    319.48291944
     -----------------------------------------------



     -----------------------------------------------
     Non-local corr. energy    =       0.79171656 Ry
     -----------------------------------------------

 
     Magnetic moment per site:
     atom:    1    charge:    1.4481    magn:   -0.0000    constr:    0.0000
     atom:    2    charge:    5.5486    magn:    0.0000    constr:    0.0000
     atom:    3    charge:    5.5486    magn:    0.0000    constr:    0.0000
[...]
     ethr =  1.00E-06,  avg # of iterations = 16.0

     negative rho (up, down):  2.240E-03 2.240E-03


     -----------------------------------------------
     C6 coefficient =    310.14444474
     -----------------------------------------------



     -----------------------------------------------
     Non-local corr. energy    =       0.80245907 Ry
     -----------------------------------------------


     total cpu time spent up to now is     1177.2 secs

     total energy              =    -317.39598956 Ry
     Harris-Foulkes estimate   =    -318.49264164 Ry
     estimated scf accuracy    <       1.43419561 Ry

     total magnetization       =     0.00 Bohr mag/cell
     absolute magnetization    =     0.00 Bohr mag/cell

     iteration #  2     ecut=    50.00 Ry     beta= 0.70
     Davidson diagonalization with overlap
     ethr =  2.99E-03,  avg # of iterations =  4.0

     negative rho (up, down):  2.462E-03 2.462E-03


     -----------------------------------------------
     C6 coefficient =    328.12129220
     -----------------------------------------------



     -----------------------------------------------
     Non-local corr. energy    =       0.79019710 Ry
     -----------------------------------------------


     total cpu time spent up to now is     1203.1 secs

     total energy              =    -317.68189573 Ry
     Harris-Foulkes estimate   =    -318.54595291 Ry
     estimated scf accuracy    <       1.82767827 Ry

     total magnetization       =    -0.00 Bohr mag/cell
     absolute magnetization    =     0.00 Bohr mag/cell

     iteration #  3     ecut=    50.00 Ry     beta= 0.70
     Davidson diagonalization with overlap
     ethr =  2.99E-03,  avg # of iterations =  2.0

     negative rho (up, down):  2.384E-03 2.384E-03


     -----------------------------------------------
     C6 coefficient =    319.91020626
     -----------------------------------------------



     -----------------------------------------------
     Non-local corr. energy    =       0.79183222 Ry
     -----------------------------------------------


     total cpu time spent up to now is     1227.6 secs

     total energy              =    -318.06229693 Ry
     Harris-Foulkes estimate   =    -318.06405978 Ry
     estimated scf accuracy    <       0.00804284 Ry

     total magnetization       =    -0.00 Bohr mag/cell
     absolute magnetization    =     0.00 Bohr mag/cell

     iteration #  4     ecut=    50.00 Ry     beta= 0.70
     Davidson diagonalization with overlap
     ethr =  1.68E-05,  avg # of iterations = 13.0

     negative rho (up, down):  2.407E-03 2.408E-03


     -----------------------------------------------
     C6 coefficient =    320.31048639
     -----------------------------------------------



     -----------------------------------------------
     Non-local corr. energy    =       0.79165388 Ry
     -----------------------------------------------


     total cpu time spent up to now is     1255.3 secs

     total energy              =    -318.06745639 Ry
     Harris-Foulkes estimate   =    -318.06765931 Ry
     estimated scf accuracy    <       0.00052277 Ry

     total magnetization       =     0.00 Bohr mag/cell
     absolute magnetization    =     0.00 Bohr mag/cell

     iteration #  5     ecut=    50.00 Ry     beta= 0.70
     Davidson diagonalization with overlap
     ethr =  1.09E-06,  avg # of iterations =  6.0

     negative rho (up, down):  2.420E-03 2.421E-03


     -----------------------------------------------
     C6 coefficient =    319.58584976
     -----------------------------------------------



     -----------------------------------------------
     Non-local corr. energy    =       0.79169722 Ry
     -----------------------------------------------


     total cpu time spent up to now is     1281.0 secs

     total energy              =    -318.06752430 Ry
     Harris-Foulkes estimate   =    -318.06753546 Ry
     estimated scf accuracy    <       0.00004186 Ry

     total magnetization       =     0.00 Bohr mag/cell
     absolute magnetization    =     0.00 Bohr mag/cell

     iteration #  6     ecut=    50.00 Ry     beta= 0.70
     Davidson diagonalization with overlap
     ethr =  8.72E-08,  avg # of iterations =  3.0

     negative rho (up, down):  2.425E-03 2.425E-03


     -----------------------------------------------
     C6 coefficient =    319.51673459
     -----------------------------------------------



     -----------------------------------------------
     Non-local corr. energy    =       0.79171322 Ry
     -----------------------------------------------


     total cpu time spent up to now is     1306.0 secs

     total energy              =    -318.06753396 Ry
     Harris-Foulkes estimate   =    -318.06753383 Ry
     estimated scf accuracy    <       0.00000068 Ry

     total magnetization       =     0.00 Bohr mag/cell
     absolute magnetization    =     0.00 Bohr mag/cell

     iteration #  7     ecut=    50.00 Ry     beta= 0.70
     Davidson diagonalization with overlap
     ethr =  1.42E-09,  avg # of iterations =  3.0

     negative rho (up, down):  2.426E-03 2.426E-03


     -----------------------------------------------
     C6 coefficient =    319.50589349
     -----------------------------------------------



     -----------------------------------------------
     Non-local corr. energy    =       0.79171708 Ry
     -----------------------------------------------


     total cpu time spent up to now is     1331.3 secs

     total energy              =    -318.06753409 Ry
     Harris-Foulkes estimate   =    -318.06753438 Ry
     estimated scf accuracy    <       0.00000072 Ry

     total magnetization       =     0.00 Bohr mag/cell
     absolute magnetization    =     0.00 Bohr mag/cell

     iteration #  8     ecut=    50.00 Ry     beta= 0.70
     Davidson diagonalization with overlap
     ethr =  1.42E-09,  avg # of iterations =  2.0

     negative rho (up, down):  2.426E-03 2.426E-03


     -----------------------------------------------
     C6 coefficient =    319.49577876
     -----------------------------------------------



     -----------------------------------------------
     Non-local corr. energy    =       0.79172139 Ry
     -----------------------------------------------


     total cpu time spent up to now is     1356.1 secs

     total energy              =    -318.06753424 Ry
     Harris-Foulkes estimate   =    -318.06753425 Ry
     estimated scf accuracy    <       0.00000005 Ry

     total magnetization       =    -0.00 Bohr mag/cell
     absolute magnetization    =     0.00 Bohr mag/cell

     iteration #  9     ecut=    50.00 Ry     beta= 0.70
     Davidson diagonalization with overlap
     ethr =  1.14E-10,  avg # of iterations =  2.0

     negative rho (up, down):  2.426E-03 2.426E-03


     -----------------------------------------------
     C6 coefficient =    319.49629642
     -----------------------------------------------



     -----------------------------------------------
     Non-local corr. energy    =       0.79172145 Ry
     -----------------------------------------------


     total cpu time spent up to now is     1381.0 secs

     total energy              =    -318.06753425 Ry
     Harris-Foulkes estimate   =    -318.06753425 Ry
     estimated scf accuracy    <          4.2E-09 Ry

     total magnetization       =     0.00 Bohr mag/cell
     absolute magnetization    =     0.00 Bohr mag/cell

     iteration # 10     ecut=    50.00 Ry     beta= 0.70
     Davidson diagonalization with overlap
     ethr =  8.84E-12,  avg # of iterations =  2.0

     negative rho (up, down):  2.426E-03 2.426E-03


     -----------------------------------------------
     C6 coefficient =    319.49779667
     -----------------------------------------------



     -----------------------------------------------
     Non-local corr. energy    =       0.79172130 Ry
     -----------------------------------------------


     total cpu time spent up to now is     1406.0 secs

     total energy              =    -318.06753425 Ry
     Harris-Foulkes estimate   =    -318.06753425 Ry
     estimated scf accuracy    <          3.9E-10 Ry

     total magnetization       =     0.00 Bohr mag/cell
     absolute magnetization    =     0.00 Bohr mag/cell

     iteration # 11     ecut=    50.00 Ry     beta= 0.70
     Davidson diagonalization with overlap
     ethr =  8.16E-13,  avg # of iterations =  2.0

     negative rho (up, down):  2.426E-03 2.426E-03


     -----------------------------------------------
     C6 coefficient =    319.49814951
     -----------------------------------------------



     -----------------------------------------------
     Non-local corr. energy    =       0.79172125 Ry
     -----------------------------------------------

 
     Magnetic moment per site:
     atom:    1    charge:    1.4481    magn:    0.0000    constr:    0.0000
     atom:    2    charge:    5.5485    magn:    0.0000    constr:    0.0000
     atom:    3    charge:    5.5485    magn:    0.0000    constr:    0.0000
     atom:    4    charge:    5.5485    magn:   -0.0000    constr:    0.0000
     atom:    5    charge:    5.5485    magn:   -0.0000    constr:    0.0000
     atom:    6    charge:    5.5485    magn:    0.0000    constr:    0.0000
     atom:    7    charge:    5.5485    magn:    0.0000    constr:    0.0000

     total cpu time spent up to now is     1430.1 secs

     End of self-consistent calculation

 ------ SPIN UP ------------


          k = 0.0000 0.0000 0.0000 (191162 PWs)   bands (ev):

   -35.0667 -32.3615 -32.3615 -32.3615 -31.3139 -31.3139 -20.9839 -16.6136
   -16.6136 -16.6136 -13.6575 -13.6575 -13.6575 -13.4076 -13.4076 -11.8524
   -11.8524 -11.8524 -11.6609 -11.6609 -11.6609 -10.7539 -10.7539 -10.7539
    -5.0525  -0.8357  -0.5592  -0.5591  -0.5591

     occupation numbers 
     1.0000   1.0000   1.0000   1.0000   1.0000   1.0000   1.0000   1.0000
     1.0000   1.0000   1.0000   1.0000   1.0000   1.0000   1.0000   1.0000
     1.0000   1.0000   1.0000   1.0000   1.0000   1.0000   1.0000   1.0000
     0.0000   0.0000   0.0000   0.0000   0.0000

 ------ SPIN DOWN ----------


          k = 0.0000 0.0000 0.0000 (191162 PWs)   bands (ev):

   -35.0667 -32.3615 -32.3615 -32.3615 -31.3139 -31.3139 -20.9839 -16.6136
   -16.6136 -16.6136 -13.6575 -13.6575 -13.6575 -13.4076 -13.4076 -11.8524
   -11.8524 -11.8524 -11.6609 -11.6609 -11.6609 -10.7539 -10.7539 -10.7539
    -5.0525  -0.8356  -0.5592  -0.5592  -0.5591

     occupation numbers 
     1.0000   1.0000   1.0000   1.0000   1.0000   1.0000   1.0000   1.0000
     1.0000   1.0000   1.0000   1.0000   1.0000   1.0000   1.0000   1.0000
     1.0000   1.0000   1.0000   1.0000   1.0000   1.0000   1.0000   1.0000
     0.0000   0.0000   0.0000   0.0000   0.0000

     the Fermi energy is    -9.1847 ev

!    total energy              =    -318.06753425 Ry
     Harris-Foulkes estimate   =    -318.06753425 Ry
     estimated scf accuracy    <          7.4E-12 Ry

     The total energy is the sum of the following terms:

     one-electron contribution =   -1157.86048661 Ry
     hartree contribution      =     587.26479919 Ry
     xc contribution           =     -66.93041648 Ry
     ewald contribution        =     319.45856965 Ry
     smearing contrib. (-TS)   =      -0.00000000 Ry

     total magnetization       =    -0.00 Bohr mag/cell
     absolute magnetization    =     0.00 Bohr mag/cell

     convergence has been achieved in  11 iterations

     negative rho (up, down):  2.426E-03 2.426E-03


     -----------------------------------------------
     C6 coefficient =    319.49814951
     -----------------------------------------------



     -----------------------------------------------
     Non-local corr. energy    =       0.79172125 Ry
     -----------------------------------------------


     Forces acting on atoms (cartesian axes, Ry/au):

     atom    1 type  1   force =     0.00000000    0.00000000    0.00000000
     atom    2 type  2   force =     0.00001197    0.00000000    0.00000000
     atom    3 type  2   force =    -0.00001197    0.00000000    0.00000000
     atom    4 type  2   force =     0.00000000    0.00000000   -0.00001197
     atom    5 type  2   force =     0.00000000    0.00000000    0.00001197
     atom    6 type  2   force =     0.00000000   -0.00001197   -0.00000000
     atom    7 type  2   force =     0.00000000    0.00001197    0.00000000
     The non-local contrib.  to forces
     atom    1 type  1   force =     0.00000000    0.00000000    0.00000000
     atom    2 type  2   force =    -2.17184310    0.00000000   -0.00000000
     atom    3 type  2   force =     2.17184310   -0.00000000    0.00000000
     atom    4 type  2   force =     0.00000000    0.00000000    2.17184310
     atom    5 type  2   force =     0.00000000    0.00000000   -2.17184310
     atom    6 type  2   force =     0.00000000    2.17184310    0.00000000
     atom    7 type  2   force =    -0.00000000   -2.17184310    0.00000000
     The ionic contribution  to forces
     atom    1 type  1   force =     0.00000000   -0.00000000   -0.00000000
     atom    2 type  2   force =    25.93914829   -0.00000000    0.00000000
     atom    3 type  2   force =   -25.93914829    0.00000000    0.00000000
     atom    4 type  2   force =     0.00000000   -0.00000000  -25.93914829
     atom    5 type  2   force =     0.00000000    0.00000000   25.93914829
     atom    6 type  2   force =     0.00000000  -25.93914829   -0.00000000
     atom    7 type  2   force =    -0.00000000   25.93914829    0.00000000
     The local contribution  to forces
     atom    1 type  1   force =    -0.00000106   -0.00000012    0.00000121
     atom    2 type  2   force =   -23.76729537   -0.00000003    0.00000009
     atom    3 type  2   force =    23.76729798   -0.00000005    0.00000017
     atom    4 type  2   force =    -0.00000027   -0.00000008   23.76729514
     atom    5 type  2   force =    -0.00000011   -0.00000002  -23.76729869
     atom    6 type  2   force =    -0.00000016   23.76729760    0.00000026
     atom    7 type  2   force =    -0.00000014  -23.76729750    0.00000029
     The core correction contribution to forces
     atom    1 type  1   force =    -0.00000004    0.00000000    0.00000005
     atom    2 type  2   force =     0.00000000    0.00000000    0.00000000
     atom    3 type  2   force =     0.00000000    0.00000000    0.00000000
     atom    4 type  2   force =     0.00000000    0.00000000    0.00000000
     atom    5 type  2   force =     0.00000000    0.00000000    0.00000000
     atom    6 type  2   force =     0.00000000    0.00000000    0.00000000
     atom    7 type  2   force =     0.00000000    0.00000000    0.00000000
     The Hubbard contrib.    to forces
     atom    1 type  1   force =     0.00000000    0.00000000    0.00000000
     atom    2 type  2   force =     0.00000000    0.00000000    0.00000000
     atom    3 type  2   force =     0.00000000    0.00000000    0.00000000
     atom    4 type  2   force =     0.00000000    0.00000000    0.00000000
     atom    5 type  2   force =     0.00000000    0.00000000    0.00000000
     atom    6 type  2   force =     0.00000000    0.00000000    0.00000000
     atom    7 type  2   force =     0.00000000    0.00000000    0.00000000
     The SCF correction term to forces
     atom    1 type  1   force =     0.00000039    0.00000006   -0.00000006
     atom    2 type  2   force =     0.00000147    0.00000005    0.00000014
     atom    3 type  2   force =    -0.00000493    0.00000008    0.00000012
     atom    4 type  2   force =     0.00000028    0.00000013   -0.00000143
     atom    5 type  2   force =     0.00000017    0.00000002    0.00000656
     atom    6 type  2   force =     0.00000001   -0.00000438    0.00000002
     atom    7 type  2   force =    -0.00000003    0.00000415   -0.00000006

     Total force =     0.000029     Total SCF correction =     0.000010
     SCF correction compared to forces is large: reduce conv_thr to get better values

     bfgs converged in   6 scf cycles and   5 bfgs steps
     (criteria: energy <  1.0E-04 Ry, force <  1.0E-06 Ry/Bohr)

     End of BFGS Geometry Optimization

     Final energy   =    -318.0675342509 Ry
Begin final coordinates

ATOMIC_POSITIONS (angstrom)
S        0.000000000  -0.000000000   0.000000000
F        1.628932587  -0.000000000   0.000000000
F       -1.628932587   0.000000000   0.000000000
F       -0.000000000   0.000000000  -1.628932587
F        0.000000000   0.000000000   1.628932587
F       -0.000000000  -1.628932587   0.000000000
F        0.000000000   1.628932587   0.000000000
End final coordinates



     Writing output data file SF6-vdw-df2.save
 
     init_run     :     21.01s CPU     22.19s WALL (       1 calls)
     electrons    :   1133.51s CPU   1203.65s WALL (       7 calls)
     update_pot   :     73.27s CPU     76.74s WALL (       6 calls)
     forces       :    101.69s CPU    108.69s WALL (       7 calls)

     Called by init_run:
     wfcinit      :      1.20s CPU      1.24s WALL (       1 calls)
     wfcinit:atom :      0.01s CPU      0.01s WALL (       2 calls)
     wfcinit:wfcr :      1.17s CPU      1.19s WALL (       2 calls)
     potinit      :     23.83s CPU     25.02s WALL (       2 calls)

     Called by electrons:
     c_bands      :    186.10s CPU    188.84s WALL (      49 calls)
     sum_band     :    318.14s CPU    338.86s WALL (      49 calls)
     v_of_rho     :    597.15s CPU    624.90s WALL (      54 calls)
     v_h          :      7.01s CPU      7.29s WALL (      54 calls)
     v_xc         :    666.49s CPU    697.76s WALL (      61 calls)
     newd         :     98.08s CPU    119.17s WALL (      54 calls)
     mix_rho      :     21.21s CPU     21.87s WALL (      49 calls)

     Called by c_bands:
     init_us_2    :      1.45s CPU      1.50s WALL (     212 calls)
     regterg      :    183.34s CPU    185.91s WALL (      98 calls)

     Called by sum_band:
     sum_band:bec :      0.00s CPU      0.00s WALL (      98 calls)
     addusdens    :    247.06s CPU    266.24s WALL (      49 calls)

     Called by *egterg:
     h_psi        :    167.36s CPU    169.76s WALL (     489 calls)
     s_psi        :      1.77s CPU      1.76s WALL (     489 calls)
     g_psi        :      0.30s CPU      0.30s WALL (     389 calls)
     rdiaghg      :      1.64s CPU      1.65s WALL (     469 calls)
     regterg:over :      3.47s CPU      3.49s WALL (     389 calls)
     regterg:upda :      4.99s CPU      5.02s WALL (     389 calls)
     regterg:last :      1.45s CPU      1.46s WALL (     108 calls)
     rdiaghg:chol :      0.11s CPU      0.12s WALL (     469 calls)
     rdiaghg:inve :      0.05s CPU      0.04s WALL (     469 calls)
     rdiaghg:para :      0.13s CPU      0.13s WALL (     938 calls)

     Called by h_psi:
     h_psi:pot    :    166.54s CPU    168.94s WALL (     489 calls)
     h_psi:calbec :      1.42s CPU      1.42s WALL (     489 calls)
     vloc_psi     :    163.68s CPU    166.06s WALL (     489 calls)
     add_vuspsi   :      1.44s CPU      1.46s WALL (     489 calls)

     General routines
     calbec       :      1.94s CPU      1.93s WALL (     643 calls)
     fft          :    508.49s CPU    529.03s WALL (    5657 calls)
     ffts         :      4.86s CPU      5.07s WALL (     206 calls)
     fftw         :    141.47s CPU    144.11s WALL (   10294 calls)
     interpolate  :     26.29s CPU     27.21s WALL (     206 calls)
 
     Parallel routines
     fft_scatt_xy :    109.16s CPU    109.28s WALL (   16157 calls)
     fft_scatt_yz :    231.42s CPU    252.41s WALL (   16157 calls)
 
     PWSCF        : 22m38.27s CPU    24m20.15s WALL

 
   This run was terminated on:  18: 8:43   7Jun2018            

=------------------------------------------------------------------------------=
   JOB DONE.
=------------------------------------------------------------------------------=
